    1C
    1UUSER                                                              
    1UDATE              26.may.2016                                     
    1UTIME              22:43:11                                        
    1UHOST                                                              
    1UPGM               CalculiX                                        
    1UVERSION           Version 2.10                             
    1UCOMPILETIME       Sa 5. Mär 12:23:33 CET 2016                    
    1UDIR                                                               
    1UDBN                                                               
    1UMAT    1LEAF                                                      
    1UMAT    2STEEL                                                     
    2C                           360                                     1
 -1         1 0.00000E+00 2.00000E+01 5.00000E+00
 -1         2 0.00000E+00 2.00000E+01 0.00000E+00
 -1         3 5.00000E+01 2.00000E+01 0.00000E+00
 -1         4 5.00000E+01 2.00000E+01 5.00000E+00
 -1         5 0.00000E+00 0.00000E+00 5.00000E+00
 -1         6 0.00000E+00 0.00000E+00 0.00000E+00
 -1         7 5.00000E+01 0.00000E+00 0.00000E+00
 -1         8 5.00000E+01 0.00000E+00 5.00000E+00
 -1         9 0.00000E+00 2.00000E+01 2.50000E+00
 -1        10 2.50000E+01 2.00000E+01 0.00000E+00
 -1        11 5.00000E+01 2.00000E+01 2.50000E+00
 -1        12 2.50000E+01 2.00000E+01 5.00000E+00
 -1        13 0.00000E+00 1.00000E+01 5.00000E+00
 -1        14 0.00000E+00 1.00000E+01 0.00000E+00
 -1        15 5.00000E+01 1.00000E+01 0.00000E+00
 -1        16 5.00000E+01 1.00000E+01 5.00000E+00
 -1        17 0.00000E+00 0.00000E+00 2.50000E+00
 -1        18 2.50000E+01 0.00000E+00 0.00000E+00
 -1        19 5.00000E+01 0.00000E+00 2.50000E+00
 -1        20 2.50000E+01 0.00000E+00 5.00000E+00
 -1        41 0.00000E+00 2.00000E+01 1.00000E+01
 -1        42 0.00000E+00 2.00000E+01 5.00000E+00
 -1        43 3.33333E+01 2.00000E+01 5.00000E+00
 -1        44 3.33333E+01 2.00000E+01 1.00000E+01
 -1        45 0.00000E+00 0.00000E+00 1.00000E+01
 -1        46 0.00000E+00 0.00000E+00 5.00000E+00
 -1        47 3.33333E+01 0.00000E+00 5.00000E+00
 -1        48 3.33333E+01 0.00000E+00 1.00000E+01
 -1        49 0.00000E+00 2.00000E+01 7.50000E+00
 -1        50 1.66667E+01 2.00000E+01 5.00000E+00
 -1        51 3.33333E+01 2.00000E+01 7.50000E+00
 -1        52 1.66667E+01 2.00000E+01 1.00000E+01
 -1        53 0.00000E+00 1.00000E+01 1.00000E+01
 -1        54 0.00000E+00 1.00000E+01 5.00000E+00
 -1        55 3.33333E+01 1.00000E+01 5.00000E+00
 -1        56 3.33333E+01 1.00000E+01 1.00000E+01
 -1        57 0.00000E+00 0.00000E+00 7.50000E+00
 -1        58 1.66667E+01 0.00000E+00 5.00000E+00
 -1        59 3.33333E+01-1.77636E-15 7.50000E+00
 -1        60 1.66667E+01 0.00000E+00 1.00000E+01
 -1        61 6.66667E+01 2.00000E+01 5.00000E+00
 -1        62 6.66667E+01 2.00000E+01 1.00000E+01
 -1        63 6.66667E+01 0.00000E+00 5.00000E+00
 -1        64 6.66667E+01 0.00000E+00 1.00000E+01
 -1        65 5.00000E+01 2.00000E+01 5.00000E+00
 -1        66 6.66667E+01 2.00000E+01 7.50000E+00
 -1        67 5.00000E+01 2.00000E+01 1.00000E+01
 -1        68 6.66667E+01 1.00000E+01 5.00000E+00
 -1        69 6.66667E+01 1.00000E+01 1.00000E+01
 -1        70 5.00000E+01 0.00000E+00 5.00000E+00
 -1        71 6.66667E+01 1.77636E-15 7.50000E+00
 -1        72 5.00000E+01 0.00000E+00 1.00000E+01
 -1        73 1.00000E+02 2.00000E+01 5.00000E+00
 -1        74 1.00000E+02 2.00000E+01 1.00000E+01
 -1        75 1.00000E+02 0.00000E+00 5.00000E+00
 -1        76 1.00000E+02 0.00000E+00 1.00000E+01
 -1        77 8.33333E+01 2.00000E+01 5.00000E+00
 -1        78 1.00000E+02 2.00000E+01 7.50000E+00
 -1        79 8.33333E+01 2.00000E+01 1.00000E+01
 -1        80 1.00000E+02 1.00000E+01 5.00000E+00
 -1        81 1.00000E+02 1.00000E+01 1.00000E+01
 -1        82 8.33333E+01 0.00000E+00 5.00000E+00
 -1        83 1.00000E+02 0.00000E+00 7.50000E+00
 -1        84 8.33333E+01 0.00000E+00 1.00000E+01
 -1       105 0.00000E+00 2.00000E+01 1.50000E+01
 -1       106 0.00000E+00 2.00000E+01 1.00000E+01
 -1       107 3.75000E+01 2.00000E+01 1.00000E+01
 -1       108 3.75000E+01 2.00000E+01 1.50000E+01
 -1       109 0.00000E+00 0.00000E+00 1.50000E+01
 -1       110 0.00000E+00 0.00000E+00 1.00000E+01
 -1       111 3.75000E+01 0.00000E+00 1.00000E+01
 -1       112 3.75000E+01 0.00000E+00 1.50000E+01
 -1       113 0.00000E+00 2.00000E+01 1.25000E+01
 -1       114 1.87500E+01 2.00000E+01 1.00000E+01
 -1       115 3.75000E+01 2.00000E+01 1.25000E+01
 -1       116 1.87500E+01 2.00000E+01 1.50000E+01
 -1       117 0.00000E+00 1.00000E+01 1.50000E+01
 -1       118 0.00000E+00 1.00000E+01 1.00000E+01
 -1       119 3.75000E+01 1.00000E+01 1.00000E+01
 -1       120 3.75000E+01 1.00000E+01 1.50000E+01
 -1       121 0.00000E+00 0.00000E+00 1.25000E+01
 -1       122 1.87500E+01 0.00000E+00 1.00000E+01
 -1       123 3.75000E+01 0.00000E+00 1.25000E+01
 -1       124 1.87500E+01 0.00000E+00 1.50000E+01
 -1       125 7.50000E+01 2.00000E+01 1.00000E+01
 -1       126 7.50000E+01 2.00000E+01 1.50000E+01
 -1       127 7.50000E+01 0.00000E+00 1.00000E+01
 -1       128 7.50000E+01 0.00000E+00 1.50000E+01
 -1       129 5.62500E+01 2.00000E+01 1.00000E+01
 -1       130 7.50000E+01 2.00000E+01 1.25000E+01
 -1       131 5.62500E+01 2.00000E+01 1.50000E+01
 -1       132 7.50000E+01 1.00000E+01 1.00000E+01
 -1       133 7.50000E+01 1.00000E+01 1.50000E+01
 -1       134 5.62500E+01 0.00000E+00 1.00000E+01
 -1       135 7.50000E+01 0.00000E+00 1.25000E+01
 -1       136 5.62500E+01 0.00000E+00 1.50000E+01
 -1       137 1.12500E+02 2.00000E+01 1.00000E+01
 -1       138 1.12500E+02 2.00000E+01 1.50000E+01
 -1       139 1.12500E+02 0.00000E+00 1.00000E+01
 -1       140 1.12500E+02 0.00000E+00 1.50000E+01
 -1       141 9.37500E+01 2.00000E+01 1.00000E+01
 -1       142 1.12500E+02 2.00000E+01 1.25000E+01
 -1       143 9.37500E+01 2.00000E+01 1.50000E+01
 -1       144 1.12500E+02 1.00000E+01 1.00000E+01
 -1       145 1.12500E+02 1.00000E+01 1.50000E+01
 -1       146 9.37500E+01 0.00000E+00 1.00000E+01
 -1       147 1.12500E+02 0.00000E+00 1.25000E+01
 -1       148 9.37500E+01 0.00000E+00 1.50000E+01
 -1       149 1.50000E+02 2.00000E+01 1.00000E+01
 -1       150 1.50000E+02 2.00000E+01 1.50000E+01
 -1       151 1.50000E+02 0.00000E+00 1.00000E+01
 -1       152 1.50000E+02 0.00000E+00 1.50000E+01
 -1       153 1.31250E+02 2.00000E+01 1.00000E+01
 -1       154 1.50000E+02 2.00000E+01 1.25000E+01
 -1       155 1.31250E+02 2.00000E+01 1.50000E+01
 -1       156 1.50000E+02 1.00000E+01 1.00000E+01
 -1       157 1.50000E+02 1.00000E+01 1.50000E+01
 -1       158 1.31250E+02 0.00000E+00 1.00000E+01
 -1       159 1.50000E+02 0.00000E+00 1.25000E+01
 -1       160 1.31250E+02 0.00000E+00 1.50000E+01
 -1       181 0.00000E+00 2.00000E+01 2.00000E+01
 -1       182 0.00000E+00 2.00000E+01 1.50000E+01
 -1       183 4.00000E+01 2.00000E+01 1.50000E+01
 -1       184 4.00000E+01 2.00000E+01 2.00000E+01
 -1       185 0.00000E+00 0.00000E+00 2.00000E+01
 -1       186 0.00000E+00 0.00000E+00 1.50000E+01
 -1       187 4.00000E+01 0.00000E+00 1.50000E+01
 -1       188 4.00000E+01 0.00000E+00 2.00000E+01
 -1       189 0.00000E+00 2.00000E+01 1.75000E+01
 -1       190 2.00000E+01 2.00000E+01 1.50000E+01
 -1       191 4.00000E+01 2.00000E+01 1.75000E+01
 -1       192 2.00000E+01 2.00000E+01 2.00000E+01
 -1       193 0.00000E+00 1.00000E+01 2.00000E+01
 -1       194 0.00000E+00 1.00000E+01 1.50000E+01
 -1       195 4.00000E+01 1.00000E+01 1.50000E+01
 -1       196 4.00000E+01 1.00000E+01 2.00000E+01
 -1       197 0.00000E+00 0.00000E+00 1.75000E+01
 -1       198 2.00000E+01 0.00000E+00 1.50000E+01
 -1       199 4.00000E+01-1.77636E-15 1.75000E+01
 -1       200 2.00000E+01 0.00000E+00 2.00000E+01
 -1       201 8.00000E+01 2.00000E+01 1.50000E+01
 -1       202 8.00000E+01 2.00000E+01 2.00000E+01
 -1       203 8.00000E+01 0.00000E+00 1.50000E+01
 -1       204 8.00000E+01 0.00000E+00 2.00000E+01
 -1       205 6.00000E+01 2.00000E+01 1.50000E+01
 -1       206 8.00000E+01 2.00000E+01 1.75000E+01
 -1       207 6.00000E+01 2.00000E+01 2.00000E+01
 -1       208 8.00000E+01 1.00000E+01 1.50000E+01
 -1       209 8.00000E+01 1.00000E+01 2.00000E+01
 -1       210 6.00000E+01 0.00000E+00 1.50000E+01
 -1       211 8.00000E+01-1.77636E-15 1.75000E+01
 -1       212 6.00000E+01 0.00000E+00 2.00000E+01
 -1       213 1.20000E+02 2.00000E+01 1.50000E+01
 -1       214 1.20000E+02 2.00000E+01 2.00000E+01
 -1       215 1.20000E+02 0.00000E+00 1.50000E+01
 -1       216 1.20000E+02 0.00000E+00 2.00000E+01
 -1       217 1.00000E+02 2.00000E+01 1.50000E+01
 -1       218 1.20000E+02 2.00000E+01 1.75000E+01
 -1       219 1.00000E+02 2.00000E+01 2.00000E+01
 -1       220 1.20000E+02 1.00000E+01 1.50000E+01
 -1       221 1.20000E+02 1.00000E+01 2.00000E+01
 -1       222 1.00000E+02 0.00000E+00 1.50000E+01
 -1       223 1.20000E+02 0.00000E+00 1.75000E+01
 -1       224 1.00000E+02 0.00000E+00 2.00000E+01
 -1       225 1.60000E+02 2.00000E+01 1.50000E+01
 -1       226 1.60000E+02 2.00000E+01 2.00000E+01
 -1       227 1.60000E+02 0.00000E+00 1.50000E+01
 -1       228 1.60000E+02 0.00000E+00 2.00000E+01
 -1       229 1.40000E+02 2.00000E+01 1.50000E+01
 -1       230 1.60000E+02 2.00000E+01 1.75000E+01
 -1       231 1.40000E+02 2.00000E+01 2.00000E+01
 -1       232 1.60000E+02 1.00000E+01 1.50000E+01
 -1       233 1.60000E+02 1.00000E+01 2.00000E+01
 -1       234 1.40000E+02 0.00000E+00 1.50000E+01
 -1       235 1.60000E+02 0.00000E+00 1.75000E+01
 -1       236 1.40000E+02 0.00000E+00 2.00000E+01
 -1       237 2.00000E+02 2.00000E+01 1.50000E+01
 -1       238 2.00000E+02 2.00000E+01 2.00000E+01
 -1       239 2.00000E+02 0.00000E+00 1.50000E+01
 -1       240 2.00000E+02 0.00000E+00 2.00000E+01
 -1       241 1.80000E+02 2.00000E+01 1.50000E+01
 -1       242 2.00000E+02 2.00000E+01 1.75000E+01
 -1       243 1.80000E+02 2.00000E+01 2.00000E+01
 -1       244 2.00000E+02 1.00000E+01 1.50000E+01
 -1       245 2.00000E+02 1.00000E+01 2.00000E+01
 -1       246 1.80000E+02 0.00000E+00 1.50000E+01
 -1       247 2.00000E+02 0.00000E+00 1.75000E+01
 -1       248 1.80000E+02 0.00000E+00 2.00000E+01
 -1       269 0.00000E+00 2.00000E+01 2.50000E+01
 -1       270 0.00000E+00 2.00000E+01 2.00000E+01
 -1       271 4.16667E+01 2.00000E+01 2.00000E+01
 -1       272 4.16667E+01 2.00000E+01 2.50000E+01
 -1       273 0.00000E+00 0.00000E+00 2.50000E+01
 -1       274 0.00000E+00 0.00000E+00 2.00000E+01
 -1       275 4.16667E+01 0.00000E+00 2.00000E+01
 -1       276 4.16667E+01 0.00000E+00 2.50000E+01
 -1       277 0.00000E+00 2.00000E+01 2.25000E+01
 -1       278 2.08333E+01 2.00000E+01 2.00000E+01
 -1       279 4.16667E+01 2.00000E+01 2.25000E+01
 -1       280 2.08333E+01 2.00000E+01 2.50000E+01
 -1       281 0.00000E+00 1.00000E+01 2.50000E+01
 -1       282 0.00000E+00 1.00000E+01 2.00000E+01
 -1       283 4.16667E+01 1.00000E+01 2.00000E+01
 -1       284 4.16667E+01 1.00000E+01 2.50000E+01
 -1       285 0.00000E+00 0.00000E+00 2.25000E+01
 -1       286 2.08333E+01 0.00000E+00 2.00000E+01
 -1       287 4.16667E+01 0.00000E+00 2.25000E+01
 -1       288 2.08333E+01 0.00000E+00 2.50000E+01
 -1       289 8.33333E+01 2.00000E+01 2.00000E+01
 -1       290 8.33333E+01 2.00000E+01 2.50000E+01
 -1       291 8.33333E+01 0.00000E+00 2.00000E+01
 -1       292 8.33333E+01 0.00000E+00 2.50000E+01
 -1       293 6.25000E+01 2.00000E+01 2.00000E+01
 -1       294 8.33333E+01 2.00000E+01 2.25000E+01
 -1       295 6.25000E+01 2.00000E+01 2.50000E+01
 -1       296 8.33333E+01 1.00000E+01 2.00000E+01
 -1       297 8.33333E+01 1.00000E+01 2.50000E+01
 -1       298 6.25000E+01 0.00000E+00 2.00000E+01
 -1       299 8.33333E+01 3.55271E-15 2.25000E+01
 -1       300 6.25000E+01 0.00000E+00 2.50000E+01
 -1       301 1.25000E+02 2.00000E+01 2.00000E+01
 -1       302 1.25000E+02 2.00000E+01 2.50000E+01
 -1       303 1.25000E+02 0.00000E+00 2.00000E+01
 -1       304 1.25000E+02 0.00000E+00 2.50000E+01
 -1       305 1.04167E+02 2.00000E+01 2.00000E+01
 -1       306 1.25000E+02 2.00000E+01 2.25000E+01
 -1       307 1.04167E+02 2.00000E+01 2.50000E+01
 -1       308 1.25000E+02 1.00000E+01 2.00000E+01
 -1       309 1.25000E+02 1.00000E+01 2.50000E+01
 -1       310 1.04167E+02 0.00000E+00 2.00000E+01
 -1       311 1.25000E+02 0.00000E+00 2.25000E+01
 -1       312 1.04167E+02 0.00000E+00 2.50000E+01
 -1       313 1.66667E+02 2.00000E+01 2.00000E+01
 -1       314 1.66667E+02 2.00000E+01 2.50000E+01
 -1       315 1.66667E+02 0.00000E+00 2.00000E+01
 -1       316 1.66667E+02 0.00000E+00 2.50000E+01
 -1       317 1.45833E+02 2.00000E+01 2.00000E+01
 -1       318 1.66667E+02 2.00000E+01 2.25000E+01
 -1       319 1.45833E+02 2.00000E+01 2.50000E+01
 -1       320 1.66667E+02 1.00000E+01 2.00000E+01
 -1       321 1.66667E+02 1.00000E+01 2.50000E+01
 -1       322 1.45833E+02 0.00000E+00 2.00000E+01
 -1       323 1.66667E+02 0.00000E+00 2.25000E+01
 -1       324 1.45833E+02 0.00000E+00 2.50000E+01
 -1       325 2.08333E+02 2.00000E+01 2.00000E+01
 -1       326 2.08333E+02 2.00000E+01 2.50000E+01
 -1       327 2.08333E+02 0.00000E+00 2.00000E+01
 -1       328 2.08333E+02 0.00000E+00 2.50000E+01
 -1       329 1.87500E+02 2.00000E+01 2.00000E+01
 -1       330 2.08333E+02 2.00000E+01 2.25000E+01
 -1       331 1.87500E+02 2.00000E+01 2.50000E+01
 -1       332 2.08333E+02 1.00000E+01 2.00000E+01
 -1       333 2.08333E+02 1.00000E+01 2.50000E+01
 -1       334 1.87500E+02 0.00000E+00 2.00000E+01
 -1       335 2.08333E+02 0.00000E+00 2.25000E+01
 -1       336 1.87500E+02 0.00000E+00 2.50000E+01
 -1       337 2.50000E+02 2.00000E+01 2.00000E+01
 -1       338 2.50000E+02 2.00000E+01 2.50000E+01
 -1       339 2.50000E+02 0.00000E+00 2.00000E+01
 -1       340 2.50000E+02 0.00000E+00 2.50000E+01
 -1       341 2.29167E+02 2.00000E+01 2.00000E+01
 -1       342 2.50000E+02 2.00000E+01 2.25000E+01
 -1       343 2.29167E+02 2.00000E+01 2.50000E+01
 -1       344 2.50000E+02 1.00000E+01 2.00000E+01
 -1       345 2.50000E+02 1.00000E+01 2.50000E+01
 -1       346 2.29167E+02 0.00000E+00 2.00000E+01
 -1       347 2.50000E+02 0.00000E+00 2.25000E+01
 -1       348 2.29167E+02 0.00000E+00 2.50000E+01
 -1       369 0.00000E+00 2.00000E+01 3.00000E+01
 -1       370 0.00000E+00 2.00000E+01 2.50000E+01
 -1       371 4.28571E+01 2.00000E+01 2.50000E+01
 -1       372 4.28571E+01 2.00000E+01 3.00000E+01
 -1       373 0.00000E+00 0.00000E+00 3.00000E+01
 -1       374 0.00000E+00 0.00000E+00 2.50000E+01
 -1       375 4.28571E+01 0.00000E+00 2.50000E+01
 -1       376 4.28571E+01 0.00000E+00 3.00000E+01
 -1       377 0.00000E+00 2.00000E+01 2.75000E+01
 -1       378 2.14286E+01 2.00000E+01 2.50000E+01
 -1       379 4.28571E+01 2.00000E+01 2.75000E+01
 -1       380 2.14286E+01 2.00000E+01 3.00000E+01
 -1       381 0.00000E+00 1.00000E+01 3.00000E+01
 -1       382 0.00000E+00 1.00000E+01 2.50000E+01
 -1       383 4.28571E+01 1.00000E+01 2.50000E+01
 -1       384 4.28571E+01 1.00000E+01 3.00000E+01
 -1       385 0.00000E+00 0.00000E+00 2.75000E+01
 -1       386 2.14286E+01 0.00000E+00 2.50000E+01
 -1       387 4.28571E+01 0.00000E+00 2.75000E+01
 -1       388 2.14286E+01 0.00000E+00 3.00000E+01
 -1       389 8.57143E+01 2.00000E+01 2.50000E+01
 -1       390 8.57143E+01 2.00000E+01 3.00000E+01
 -1       391 8.57143E+01 0.00000E+00 2.50000E+01
 -1       392 8.57143E+01 0.00000E+00 3.00000E+01
 -1       393 6.42857E+01 2.00000E+01 2.50000E+01
 -1       394 8.57143E+01 2.00000E+01 2.75000E+01
 -1       395 6.42857E+01 2.00000E+01 3.00000E+01
 -1       396 8.57143E+01 1.00000E+01 2.50000E+01
 -1       397 8.57143E+01 1.00000E+01 3.00000E+01
 -1       398 6.42857E+01 0.00000E+00 2.50000E+01
 -1       399 8.57143E+01-3.55271E-15 2.75000E+01
 -1       400 6.42857E+01 0.00000E+00 3.00000E+01
 -1       401 1.28571E+02 2.00000E+01 2.50000E+01
 -1       402 1.28571E+02 2.00000E+01 3.00000E+01
 -1       403 1.28571E+02 0.00000E+00 2.50000E+01
 -1       404 1.28571E+02 0.00000E+00 3.00000E+01
 -1       405 1.07143E+02 2.00000E+01 2.50000E+01
 -1       406 1.28571E+02 2.00000E+01 2.75000E+01
 -1       407 1.07143E+02 2.00000E+01 3.00000E+01
 -1       408 1.28571E+02 1.00000E+01 2.50000E+01
 -1       409 1.28571E+02 1.00000E+01 3.00000E+01
 -1       410 1.07143E+02 0.00000E+00 2.50000E+01
 -1       411 1.28571E+02 0.00000E+00 2.75000E+01
 -1       412 1.07143E+02 0.00000E+00 3.00000E+01
 -1       413 1.71429E+02 2.00000E+01 2.50000E+01
 -1       414 1.71429E+02 2.00000E+01 3.00000E+01
 -1       415 1.71429E+02 0.00000E+00 2.50000E+01
 -1       416 1.71429E+02 0.00000E+00 3.00000E+01
 -1       417 1.50000E+02 2.00000E+01 2.50000E+01
 -1       418 1.71429E+02 2.00000E+01 2.75000E+01
 -1       419 1.50000E+02 2.00000E+01 3.00000E+01
 -1       420 1.71429E+02 1.00000E+01 2.50000E+01
 -1       421 1.71429E+02 1.00000E+01 3.00000E+01
 -1       422 1.50000E+02 0.00000E+00 2.50000E+01
 -1       423 1.71429E+02 0.00000E+00 2.75000E+01
 -1       424 1.50000E+02 0.00000E+00 3.00000E+01
 -1       425 2.14286E+02 2.00000E+01 2.50000E+01
 -1       426 2.14286E+02 2.00000E+01 3.00000E+01
 -1       427 2.14286E+02 0.00000E+00 2.50000E+01
 -1       428 2.14286E+02 0.00000E+00 3.00000E+01
 -1       429 1.92857E+02 2.00000E+01 2.50000E+01
 -1       430 2.14286E+02 2.00000E+01 2.75000E+01
 -1       431 1.92857E+02 2.00000E+01 3.00000E+01
 -1       432 2.14286E+02 1.00000E+01 2.50000E+01
 -1       433 2.14286E+02 1.00000E+01 3.00000E+01
 -1       434 1.92857E+02 0.00000E+00 2.50000E+01
 -1       435 2.14286E+02 0.00000E+00 2.75000E+01
 -1       436 1.92857E+02 0.00000E+00 3.00000E+01
 -1       437 2.57143E+02 2.00000E+01 2.50000E+01
 -1       438 2.57143E+02 2.00000E+01 3.00000E+01
 -1       439 2.57143E+02 0.00000E+00 2.50000E+01
 -1       440 2.57143E+02 0.00000E+00 3.00000E+01
 -1       441 2.35714E+02 2.00000E+01 2.50000E+01
 -1       442 2.57143E+02 2.00000E+01 2.75000E+01
 -1       443 2.35714E+02 2.00000E+01 3.00000E+01
 -1       444 2.57143E+02 1.00000E+01 2.50000E+01
 -1       445 2.57143E+02 1.00000E+01 3.00000E+01
 -1       446 2.35714E+02 0.00000E+00 2.50000E+01
 -1       447 2.57143E+02 0.00000E+00 2.75000E+01
 -1       448 2.35714E+02 0.00000E+00 3.00000E+01
 -1       449 3.00000E+02 2.00000E+01 2.50000E+01
 -1       450 3.00000E+02 2.00000E+01 3.00000E+01
 -1       451 3.00000E+02 0.00000E+00 2.50000E+01
 -1       452 3.00000E+02 0.00000E+00 3.00000E+01
 -1       453 2.78571E+02 2.00000E+01 2.50000E+01
 -1       454 3.00000E+02 2.00000E+01 2.75000E+01
 -1       455 2.78571E+02 2.00000E+01 3.00000E+01
 -1       456 3.00000E+02 1.00000E+01 2.50000E+01
 -1       457 3.00000E+02 1.00000E+01 3.00000E+01
 -1       458 2.78571E+02 0.00000E+00 2.50000E+01
 -1       459 3.00000E+02 0.00000E+00 2.75000E+01
 -1       460 2.78571E+02 0.00000E+00 3.00000E+01
 -3
    3C                            26                                     1
 -1         1    4    0    2
 -2         1         2         3         4         5         6         7         8         9        10
 -2        11        12        13        14        15        16        17        18        19        20
 -1         2    4    0    2
 -2        41        42        43        44        45        46        47        48        49        50
 -2        51        52        53        54        55        56        57        58        59        60
 -1         3    4    0    2
 -2        44        43        61        62        48        47        63        64        51        65
 -2        66        67        56        55        68        69        59        70        71        72
 -1         4    4    0    2
 -2        62        61        73        74        64        63        75        76        66        77
 -2        78        79        69        68        80        81        71        82        83        84
 -1         5    4    0    2
 -2       105       106       107       108       109       110       111       112       113       114
 -2       115       116       117       118       119       120       121       122       123       124
 -1         6    4    0    2
 -2       108       107       125       126       112       111       127       128       115       129
 -2       130       131       120       119       132       133       123       134       135       136
 -1         7    4    0    2
 -2       126       125       137       138       128       127       139       140       130       141
 -2       142       143       133       132       144       145       135       146       147       148
 -1         8    4    0    2
 -2       138       137       149       150       140       139       151       152       142       153
 -2       154       155       145       144       156       157       147       158       159       160
 -1         9    4    0    2
 -2       181       182       183       184       185       186       187       188       189       190
 -2       191       192       193       194       195       196       197       198       199       200
 -1        10    4    0    2
 -2       184       183       201       202       188       187       203       204       191       205
 -2       206       207       196       195       208       209       199       210       211       212
 -1        11    4    0    2
 -2       202       201       213       214       204       203       215       216       206       217
 -2       218       219       209       208       220       221       211       222       223       224
 -1        12    4    0    2
 -2       214       213       225       226       216       215       227       228       218       229
 -2       230       231       221       220       232       233       223       234       235       236
 -1        13    4    0    2
 -2       226       225       237       238       228       227       239       240       230       241
 -2       242       243       233       232       244       245       235       246       247       248
 -1        14    4    0    2
 -2       269       270       271       272       273       274       275       276       277       278
 -2       279       280       281       282       283       284       285       286       287       288
 -1        15    4    0    2
 -2       272       271       289       290       276       275       291       292       279       293
 -2       294       295       284       283       296       297       287       298       299       300
 -1        16    4    0    2
 -2       290       289       301       302       292       291       303       304       294       305
 -2       306       307       297       296       308       309       299       310       311       312
 -1        17    4    0    2
 -2       302       301       313       314       304       303       315       316       306       317
 -2       318       319       309       308       320       321       311       322       323       324
 -1        18    4    0    2
 -2       314       313       325       326       316       315       327       328       318       329
 -2       330       331       321       320       332       333       323       334       335       336
 -1        19    4    0    2
 -2       326       325       337       338       328       327       339       340       330       341
 -2       342       343       333       332       344       345       335       346       347       348
 -1        20    4    0    2
 -2       369       370       371       372       373       374       375       376       377       378
 -2       379       380       381       382       383       384       385       386       387       388
 -1        21    4    0    2
 -2       372       371       389       390       376       375       391       392       379       393
 -2       394       395       384       383       396       397       387       398       399       400
 -1        22    4    0    2
 -2       390       389       401       402       392       391       403       404       394       405
 -2       406       407       397       396       408       409       399       410       411       412
 -1        23    4    0    2
 -2       402       401       413       414       404       403       415       416       406       417
 -2       418       419       409       408       420       421       411       422       423       424
 -1        24    4    0    2
 -2       414       413       425       426       416       415       427       428       418       429
 -2       430       431       421       420       432       433       423       434       435       436
 -1        25    4    0    2
 -2       426       425       437       438       428       427       439       440       430       441
 -2       442       443       433       432       444       445       435       446       447       448
 -1        26    4    0    2
 -2       438       437       449       450       440       439       451       452       442       453
 -2       454       455       445       444       456       457       447       458       459       460
 -3
    1PSTEP                         1          50           1          
  100CL  101 2.90379E-02         360                     0    1           1
 -4  DISP        4    1
 -5  D1          1    2    1    0
 -5  D2          1    2    2    0
 -5  D3          1    2    3    0
 -5  ALL         1    2    0    0    1ALL
 -1         1 0.00000E+00-1.35782E-05 2.90379E-01
 -1         2 0.00000E+00 1.36656E-05 2.90379E-01
 -1         3-7.30489E-04 9.00701E-05 2.82952E-01
 -1         4 7.28497E-04-8.74679E-05 2.82951E-01
 -1         5 0.00000E+00 0.00000E+00 2.90379E-01
 -1         6 0.00000E+00 0.00000E+00 2.90379E-01
 -1         7-7.37615E-04 0.00000E+00 2.82580E-01
 -1         8 7.37543E-04 0.00000E+00 2.82577E-01
 -1         9 0.00000E+00 2.03731E-08 2.90379E-01
 -1        10-3.75615E-04 5.43178E-05 2.88515E-01
 -1        11-1.00988E-06 1.23469E-06 2.82960E-01
 -1        12 3.74685E-04-5.45727E-05 2.88515E-01
 -1        13 0.00000E+00-7.23219E-07 2.90379E-01
 -1        14 0.00000E+00 5.67384E-07 2.90379E-01
 -1        15-7.38142E-04 4.73232E-05 2.82670E-01
 -1        16 7.37212E-04-4.57870E-05 2.82670E-01
 -1        17 0.00000E+00 0.00000E+00 2.90379E-01
 -1        18-3.94451E-04 0.00000E+00 2.88311E-01
 -1        19-9.26469E-08 0.00000E+00 2.82587E-01
 -1        20 3.93861E-04 0.00000E+00 2.88311E-01
 -1        41 0.00000E+00-1.26121E-05 2.90379E-01
 -1        42 0.00000E+00 1.27592E-05 2.90379E-01
 -1        43-4.90807E-04 9.00396E-05 2.87369E-01
 -1        44 4.90796E-04-8.99733E-05 2.87368E-01
 -1        45 0.00000E+00 0.00000E+00 2.90379E-01
 -1        46 0.00000E+00 0.00000E+00 2.90379E-01
 -1        47-5.02474E-04 0.00000E+00 2.87028E-01
 -1        48 5.02069E-04 0.00000E+00 2.87028E-01
 -1        49 0.00000E+00 4.80042E-08 2.90379E-01
 -1        50-2.26689E-04 5.13529E-05 2.89704E-01
 -1        51-1.57449E-09-1.06325E-08 2.87378E-01
 -1        52 2.26793E-04-5.10264E-05 2.89703E-01
 -1        53 0.00000E+00-1.35648E-06 2.90379E-01
 -1        54 0.00000E+00 1.20090E-06 2.90379E-01
 -1        55-4.99598E-04 4.20868E-05 2.87102E-01
 -1        56 4.99481E-04-4.20023E-05 2.87102E-01
 -1        57 0.00000E+00 0.00000E+00 2.90379E-01
 -1        58-2.52134E-04 0.00000E+00 2.89528E-01
 -1        59-2.23500E-07 0.00000E+00 2.87038E-01
 -1        60 2.52289E-04 0.00000E+00 2.89528E-01
 -1        61-1.16196E-03 8.85622E-05 2.76293E-01
 -1        62 1.15911E-03-8.83515E-05 2.76292E-01
 -1        63-1.15359E-03 0.00000E+00 2.75948E-01
 -1        64 1.15064E-03 0.00000E+00 2.75947E-01
 -1        65-8.31579E-04 9.73716E-05 2.82951E-01
 -1        66-1.41928E-06 7.08919E-08 2.76298E-01
 -1        67 8.30812E-04-9.66373E-05 2.82950E-01
 -1        68-1.15665E-03 4.29032E-05 2.76030E-01
 -1        69 1.15340E-03-4.28125E-05 2.76029E-01
 -1        70-8.31812E-04 0.00000E+00 2.82577E-01
 -1        71-1.43117E-06 0.00000E+00 2.75953E-01
 -1        72 8.30733E-04 0.00000E+00 2.82576E-01
 -1        73-1.44576E-03 6.83568E-05 2.58766E-01
 -1        74 1.43238E-03-6.58681E-05 2.58766E-01
 -1        75-1.45109E-03 0.00000E+00 2.58463E-01
 -1        76 1.44020E-03 0.00000E+00 2.58460E-01
 -1        77-1.32089E-03 7.10340E-05 2.67991E-01
 -1        78-6.70518E-06 1.31269E-06 2.58767E-01
 -1        79 1.31318E-03-7.13081E-05 2.67990E-01
 -1        80-1.44651E-03 3.87801E-05 2.58555E-01
 -1        81 1.43487E-03-3.73129E-05 2.58553E-01
 -1        82-1.31768E-03 0.00000E+00 2.67697E-01
 -1        83-5.57663E-06 0.00000E+00 2.58462E-01
 -1        84 1.31019E-03 0.00000E+00 2.67697E-01
 -1       105 0.00000E+00-1.21590E-05 2.90379E-01
 -1       106 0.00000E+00 1.22459E-05 2.90379E-01
 -1       107-5.43275E-04 8.92798E-05 2.86538E-01
 -1       108 5.43495E-04-8.90274E-05 2.86537E-01
 -1       109 0.00000E+00 0.00000E+00 2.90379E-01
 -1       110 0.00000E+00 0.00000E+00 2.90379E-01
 -1       111-5.52148E-04 0.00000E+00 2.86190E-01
 -1       112 5.51792E-04 0.00000E+00 2.86189E-01
 -1       113 0.00000E+00 1.99021E-08 2.90379E-01
 -1       114-2.56892E-04 5.34561E-05 2.89503E-01
 -1       115 1.20187E-07 6.56881E-08 2.86546E-01
 -1       116 2.57020E-04-5.30353E-05 2.89502E-01
 -1       117 0.00000E+00-1.54123E-06 2.90379E-01
 -1       118 0.00000E+00 1.37849E-06 2.90379E-01
 -1       119-5.51011E-04 4.36462E-05 2.86270E-01
 -1       120 5.50856E-04-4.36546E-05 2.86270E-01
 -1       121 0.00000E+00 0.00000E+00 2.90379E-01
 -1       122-2.80396E-04 0.00000E+00 2.89308E-01
 -1       123-1.75997E-07 0.00000E+00 2.86198E-01
 -1       124 2.80536E-04 0.00000E+00 2.89308E-01
 -1       125-1.21670E-03 1.07353E-04 2.73403E-01
 -1       126 1.21187E-03-1.07511E-04 2.73403E-01
 -1       127-1.21575E-03 0.00000E+00 2.72980E-01
 -1       128 1.21057E-03 0.00000E+00 2.72979E-01
 -1       129-8.76089E-04 1.01937E-04 2.81223E-01
 -1       130-2.41384E-06-5.49756E-08 2.73410E-01
 -1       131 8.74667E-04-1.02002E-04 2.81223E-01